
Host: Lex-Ubuntu

Timers On : Wed Feb  5 10:49:59 2020
Timers Off: Wed Feb  5 10:50:07 2020

Wall Time:        8.42 seconds

                                                       Time (seconds)
Module                                       User      System        Wall        Calls

--------------------------------------------------------------------------------------

**************************************************************************************
